title='View'
variables=x, u, p, rho
zone t='filed', i=129, j=1, k=1  DATAPACKING=BLOCK, VARLOCATION=([2-4]=CELLCENTERED) SOLUTIONTIME=0.1
0 0.0078125 0.015625 0.0234375 0.03125 0.0390625 0.046875 0.0546875 0.0625 0.0703125 0.078125 0.0859375 0.09375 0.101562 0.109375 0.117188 0.125 0.132812 0.140625 0.148438 0.15625 0.164062 0.171875 0.179688 0.1875 0.195312 0.203125 0.210938 0.21875 0.226562 0.234375 0.242188 0.25 0.257812 0.265625 0.273438 0.28125 0.289062 0.296875 0.304688 0.3125 0.320312 0.328125 0.335938 0.34375 0.351562 0.359375 0.367188 0.375 0.382812 0.390625 0.398438 0.40625 0.414062 0.421875 0.429688 0.4375 0.445312 0.453125 0.460938 0.46875 0.476562 0.484375 0.492188 0.5 0.507812 0.515625 0.523438 0.53125 0.539062 0.546875 0.554688 0.5625 0.570312 0.578125 0.585938 0.59375 0.601562 0.609375 0.617188 0.625 0.632812 0.640625 0.648438 0.65625 0.664062 0.671875 0.679688 0.6875 0.695312 0.703125 0.710938 0.71875 0.726562 0.734375 0.742188 0.75 0.757812 0.765625 0.773438 0.78125 0.789062 0.796875 0.804688 0.8125 0.820312 0.828125 0.835938 0.84375 0.851562 0.859375 0.867188 0.875 0.882812 0.890625 0.898438 0.90625 0.914062 0.921875 0.929688 0.9375 0.945312 0.953125 0.960938 0.96875 0.976562 0.984375 0.992188 1 
0 0 0 -0.937816 -0.87604 -0.831238 -0.764681 -0.694402 -0.624918 -0.556578 -0.489022 -0.422287 -0.356694 -0.292233 -0.230164 -0.171841 -0.115982 -0.0611644 -0.0195241 -0.00482418 -0.00122166 -0.000295612 -5.34285e-05 1.04128e-05 2.38036e-06 3.74475e-07 -5.998e-06 3.92976e-06 -3.92279e-06 3.09498e-06 -3.07593e-06 1.6009e-06 -1.27666e-06 -1.15967e-06 1.29191e-06 -2.23033e-06 6.16704e-07 -2.2939e-06 2.29772e-06 5.11362e-06 3.14714e-06 1.13698e-05 6.19413e-05 0.000256035 0.000849495 0.00252157 0.00678855 0.0165609 0.0377675 0.0749182 0.124256 0.179766 0.237882 0.297261 0.357708 0.418688 0.479679 0.540316 0.600441 0.659371 0.71665 0.771627 0.822016 0.864444 0.894702 0.912378 0.921422 0.925611 0.927427 0.928159 0.928313 0.9282 0.928052 0.928063 0.928186 0.928244 0.928219 0.92817 0.928144 0.92825 0.928434 0.928533 0.928749 0.931581 0.938385 0.885415 0.454082 0.064211 0.00551261 0.00031492 1.71794e-05 -2.36766e-06 1.18764e-06 5.83648e-07 -3.8147e-08 1.11022e-15 2.41598e-08 0 0 0 0 0 0 0 0 0 0 0 0 0 0 0 0 0 0 0 0 0 0 0 0 0 0 0 0 0 0 0 
0.1 0.1 0.1 0.338529 0.323688 0.346586 0.379524 0.417341 0.45777 0.50079 0.546668 0.595522 0.647057 0.70147 0.757461 0.813567 0.870573 0.929793 0.977111 0.994306 0.998555 0.999651 0.999937 1.00001 1 1 0.999994 1.00001 0.999997 1.00001 0.999997 1 1 1 1 0.999999 1 1 0.999999 0.999996 0.999995 0.99999 0.999926 0.999698 0.998997 0.997021 0.991996 0.980571 0.956149 0.914644 0.861918 0.805727 0.750345 0.696986 0.646242 0.598286 0.55329 0.51142 0.472833 0.437324 0.404962 0.37605 0.350918 0.330927 0.31739 0.309666 0.305714 0.30389 0.303188 0.302986 0.302936 0.302932 0.302964 0.30304 0.303127 0.303183 0.303207 0.303215 0.303224 0.303274 0.303351 0.303398 0.303479 0.304442 0.306747 0.289331 0.174662 0.108632 0.100726 0.100042 0.100002 0.0999997 0.1 0.1 0.1 0.1 0.1 0.1 0.1 0.1 0.1 0.1 0.1 0.1 0.1 0.1 0.1 0.1 0.1 0.1 0.1 0.1 0.1 0.1 0.1 0.1 0.1 0.1 0.1 0.1 0.1 0.1 0.1 0.1 0.1 0.1 0.1 0.1 
0.125 0.125 0.125 0.430043 0.444554 0.469252 0.500809 0.535834 0.572242 0.610094 0.649625 0.690613 0.732759 0.776249 0.820025 0.862961 0.905716 0.949216 0.983542 0.995924 0.998966 0.999748 0.999955 1.00001 1 1 0.999996 1 0.999998 1 0.999997 1 1 1 1 0.999999 1 1 1 0.999997 0.999996 0.999993 0.999947 0.999785 0.999283 0.997868 0.994276 0.98607 0.968427 0.938181 0.899253 0.857004 0.814515 0.772714 0.732102 0.692875 0.655243 0.619431 0.58568 0.553922 0.524331 0.497323 0.47332 0.45386 0.440449 0.432619 0.428465 0.426361 0.425203 0.424345 0.423404 0.421913 0.418838 0.411464 0.39132 0.342634 0.294722 0.274812 0.267942 0.26563 0.265028 0.265028 0.265262 0.266078 0.267651 0.256083 0.177097 0.131651 0.125622 0.125036 0.125 0.125 0.125 0.125 0.125 0.125 0.125 0.125 0.125 0.125 0.125 0.125 0.125 0.125 0.125 0.125 0.125 0.125 0.125 0.125 0.125 0.125 0.125 0.125 0.125 0.125 0.125 0.125 0.125 0.125 0.125 0.125 0.125 0.125 0.125 0.125 0.125 0.125 
