title='View'
variables=x, u, p, rho
zone t='filed', i=129, j=1, k=1  DATAPACKING=BLOCK, VARLOCATION=([2-4]=CELLCENTERED) SOLUTIONTIME=0.2
0 0.0078125 0.015625 0.0234375 0.03125 0.0390625 0.046875 0.0546875 0.0625 0.0703125 0.078125 0.0859375 0.09375 0.101562 0.109375 0.117188 0.125 0.132812 0.140625 0.148438 0.15625 0.164062 0.171875 0.179688 0.1875 0.195312 0.203125 0.210938 0.21875 0.226562 0.234375 0.242188 0.25 0.257812 0.265625 0.273438 0.28125 0.289062 0.296875 0.304688 0.3125 0.320312 0.328125 0.335938 0.34375 0.351562 0.359375 0.367188 0.375 0.382812 0.390625 0.398438 0.40625 0.414062 0.421875 0.429688 0.4375 0.445312 0.453125 0.460938 0.46875 0.476562 0.484375 0.492188 0.5 0.507812 0.515625 0.523438 0.53125 0.539062 0.546875 0.554688 0.5625 0.570312 0.578125 0.585938 0.59375 0.601562 0.609375 0.617188 0.625 0.632812 0.640625 0.648438 0.65625 0.664062 0.671875 0.679688 0.6875 0.695312 0.703125 0.710938 0.71875 0.726562 0.734375 0.742188 0.75 0.757812 0.765625 0.773438 0.78125 0.789062 0.796875 0.804688 0.8125 0.820312 0.828125 0.835938 0.84375 0.851562 0.859375 0.867188 0.875 0.882812 0.890625 0.898438 0.90625 0.914062 0.921875 0.929688 0.9375 0.945312 0.953125 0.960938 0.96875 0.976562 0.984375 0.992188 1 
0 0 0 -0.947748 -0.901534 -0.892477 -0.870705 -0.842569 -0.810913 -0.77773 -0.744263 -0.710171 -0.676296 -0.643444 -0.609369 -0.576047 -0.54352 -0.509605 -0.476655 -0.444164 -0.410678 -0.378629 -0.345962 -0.312805 -0.281741 -0.249568 -0.21759 -0.186807 -0.155676 -0.125644 -0.0956672 -0.0631747 -0.0243879 0.0145858 0.0438255 0.0730614 0.10227 0.131846 0.161689 0.191841 0.222353 0.253174 0.284204 0.315426 0.346788 0.378208 0.409684 0.441207 0.472698 0.504129 0.535523 0.566832 0.597989 0.629 0.65985 0.690419 0.720614 0.750389 0.779688 0.808484 0.836513 0.862759 0.885336 0.902311 0.913519 0.920416 0.924402 0.926493 0.92746 0.927831 0.927941 0.927942 0.927878 0.927805 0.927769 0.927745 0.927691 0.927628 0.927603 0.927609 0.927595 0.927548 0.927517 0.927534 0.927552 0.927529 0.927494 0.927485 0.927505 0.927538 0.927547 0.927515 0.92748 0.92749 0.92754 0.927615 0.927669 0.927652 0.927618 0.92761 0.927635 0.927753 0.927894 0.92789 0.927854 0.92868 0.933779 0.929465 0.703429 0.172972 0.0172351 0.00118519 6.33218e-05 -3.6714e-07 -1.27055e-07 1.09797e-06 1.3032e-07 -3.9416e-08 1.78019e-08 8.26476e-09 0 0 0 0 0 0 0 0 
0.1 0.1 0.1 0.334052 0.312366 0.318411 0.328102 0.34115 0.35632 0.372865 0.390182 0.408557 0.427518 0.44665 0.467235 0.488175 0.50936 0.532312 0.555431 0.579085 0.604346 0.629413 0.65585 0.683674 0.710643 0.739515 0.769114 0.798336 0.828375 0.85713 0.884437 0.911045 0.938046 0.952112 0.938616 0.913767 0.884102 0.853786 0.823675 0.79396 0.764787 0.736278 0.708474 0.681442 0.655203 0.629741 0.605096 0.581288 0.558281 0.536076 0.514697 0.494117 0.474299 0.455259 0.437011 0.419531 0.402836 0.386953 0.371852 0.357509 0.344009 0.331736 0.321496 0.314004 0.309125 0.30613 0.304422 0.30355 0.303141 0.302967 0.30292 0.302935 0.302962 0.302976 0.302992 0.303019 0.30304 0.303047 0.303057 0.303077 0.303091 0.303087 0.303086 0.303102 0.303118 0.303114 0.303104 0.303105 0.303115 0.303129 0.303134 0.303125 0.303115 0.30312 0.303137 0.303163 0.303182 0.303177 0.303167 0.303165 0.303174 0.303214 0.303263 0.303263 0.303251 0.30353 0.305251 0.303791 0.234294 0.124482 0.102274 0.100157 0.100008 0.1 0.1 0.1 0.1 0.1 0.1 0.1 0.1 0.1 0.1 0.1 0.1 0.1 0.1 0.1 
0.125 0.125 0.125 0.425919 0.43317 0.441398 0.451122 0.463863 0.478571 0.494309 0.51053 0.527543 0.544922 0.562267 0.580706 0.599212 0.617651 0.637381 0.657022 0.676892 0.697898 0.718464 0.739862 0.762143 0.78349 0.806092 0.82904 0.85141 0.874163 0.895731 0.916016 0.935624 0.955294 0.965537 0.955742 0.937604 0.915768 0.89323 0.870614 0.848062 0.825685 0.803581 0.781787 0.760363 0.739334 0.718695 0.69849 0.678748 0.659449 0.640605 0.622252 0.604376 0.58696 0.570032 0.553617 0.537708 0.522334 0.50754 0.493311 0.479645 0.46664 0.454689 0.444618 0.437191 0.432331 0.429338 0.427616 0.426744 0.426347 0.426164 0.426111 0.426149 0.426176 0.426166 0.426179 0.426178 0.426091 0.425958 0.4258 0.425501 0.425012 0.424364 0.423385 0.421495 0.417278 0.407721 0.384137 0.33749 0.293358 0.274221 0.267926 0.265713 0.265015 0.26492 0.265076 0.265294 0.265452 0.265509 0.265513 0.265514 0.265528 0.265566 0.265607 0.265616 0.265611 0.265792 0.266872 0.265871 0.218232 0.142832 0.126872 0.125137 0.125006 0.124999 0.125 0.125 0.125 0.125 0.125 0.125 0.125 0.125 0.125 0.125 0.125 0.125 0.125 0.125 
