title='View'
variables=x, u, p, rho
zone t='filed', i=129, j=1, k=1  DATAPACKING=BLOCK, VARLOCATION=([2-4]=CELLCENTERED) SOLUTIONTIME=0.2
0 0.0078125 0.015625 0.0234375 0.03125 0.0390625 0.046875 0.0546875 0.0625 0.0703125 0.078125 0.0859375 0.09375 0.101562 0.109375 0.117188 0.125 0.132812 0.140625 0.148438 0.15625 0.164062 0.171875 0.179688 0.1875 0.195312 0.203125 0.210938 0.21875 0.226562 0.234375 0.242188 0.25 0.257812 0.265625 0.273438 0.28125 0.289062 0.296875 0.304688 0.3125 0.320312 0.328125 0.335938 0.34375 0.351562 0.359375 0.367188 0.375 0.382812 0.390625 0.398438 0.40625 0.414062 0.421875 0.429688 0.4375 0.445312 0.453125 0.460938 0.46875 0.476562 0.484375 0.492188 0.5 0.507812 0.515625 0.523438 0.53125 0.539062 0.546875 0.554688 0.5625 0.570312 0.578125 0.585938 0.59375 0.601562 0.609375 0.617188 0.625 0.632812 0.640625 0.648438 0.65625 0.664062 0.671875 0.679688 0.6875 0.695312 0.703125 0.710938 0.71875 0.726562 0.734375 0.742188 0.75 0.757812 0.765625 0.773438 0.78125 0.789062 0.796875 0.804688 0.8125 0.820312 0.828125 0.835938 0.84375 0.851562 0.859375 0.867188 0.875 0.882812 0.890625 0.898438 0.90625 0.914062 0.921875 0.929688 0.9375 0.945312 0.953125 0.960938 0.96875 0.976562 0.984375 0.992188 1 
1.15295e-06 -4.49963e-06 -3.91468e-06 -6.35049e-06 -4.60505e-06 -2.38321e-06 -2.68962e-06 8.12718e-07 -1.39768e-06 3.65758e-07 -8.23546e-07 -9.74885e-07 3.41956e-07 -1.45885e-06 1.44201e-07 -1.04712e-06 -1.29845e-06 3.67925e-07 -3.98627e-07 3.0001e-07 -2.97535e-06 -2.27838e-06 4.26126e-06 9.82332e-06 1.1246e-05 1.78678e-05 6.44813e-05 0.000217277 0.000616022 0.00156184 0.00362381 0.00769096 0.0153327 0.0292753 0.0504365 0.0765018 0.104793 0.133916 0.163518 0.193533 0.223928 0.254621 0.285516 0.316592 0.34781 0.379097 0.410443 0.441836 0.473205 0.504521 0.535796 0.566991 0.598043 0.628951 0.659693 0.690171 0.720294 0.749993 0.779195 0.807865 0.835755 0.86196 0.884727 0.902033 0.913439 0.920351 0.924278 0.926313 0.927263 0.92766 0.927826 0.927903 0.927936 0.927951 0.927932 0.927818 0.927637 0.9275 0.927453 0.927451 0.927457 0.927506 0.927623 0.927737 0.927729 0.927608 0.927465 0.927371 0.927349 0.927365 0.927376 0.927375 0.927427 0.927571 0.927745 0.927859 0.92785 0.927739 0.927615 0.927517 0.927489 0.927578 0.927674 0.92767 0.927632 0.928677 0.936099 0.938433 0.732943 0.192973 0.0193363 0.00126018 6.3446e-05 -8.85854e-07 -1.10767e-07 1.20779e-06 1.48839e-07 2.52958e-07 5.18836e-08 9.00516e-08 2.83424e-07 2.33581e-07 9.84281e-08 -2.00038e-07 -4.00484e-08 8.11084e-08 1.07795e-08 8.06445e-08 
1 0.999995 0.999997 0.999994 0.999996 0.999999 0.999999 1 1 1 1 1 1 1 1 1 1 1 1 1 1 1 0.999997 0.999989 0.999989 0.99998 0.999925 0.999744 0.999272 0.998154 0.995722 0.990936 0.981999 0.965874 0.941827 0.912923 0.882408 0.851908 0.821857 0.792292 0.763301 0.734969 0.70733 0.680451 0.654356 0.629034 0.604514 0.580818 0.557917 0.535807 0.514512 0.49401 0.474266 0.455292 0.437098 0.419667 0.403014 0.387162 0.372097 0.357811 0.34437 0.332105 0.321768 0.314122 0.309156 0.306161 0.304477 0.303623 0.303221 0.303041 0.302972 0.30295 0.302933 0.302914 0.302926 0.302986 0.303058 0.303101 0.303124 0.303145 0.303146 0.303105 0.303046 0.303017 0.303037 0.303075 0.303113 0.303148 0.303171 0.303182 0.303179 0.30316 0.303127 0.303092 0.30307 0.303083 0.303114 0.303138 0.303163 0.303188 0.30322 0.303268 0.303298 0.303284 0.303241 0.303523 0.305936 0.306493 0.242759 0.127662 0.102552 0.100167 0.100008 0.0999999 0.1 0.1 0.1 0.1 0.1 0.1 0.1 0.1 0.1 0.1 0.1 0.1 0.1 0.1 
1 0.999996 0.999998 0.999995 0.999997 1 1 1 1 1 1 1 1 1 1 1 1 1 1 1 1 1 0.999999 0.999992 0.999992 0.999987 0.999947 0.999818 0.99948 0.998681 0.996941 0.993515 0.987105 0.975492 0.958079 0.93699 0.914516 0.891827 0.869241 0.846789 0.82454 0.802561 0.780886 0.759573 0.738651 0.718118 0.69801 0.678356 0.659141 0.640376 0.622091 0.604282 0.586931 0.570061 0.553694 0.537832 0.522499 0.507737 0.493544 0.479934 0.466989 0.455048 0.444886 0.437307 0.432362 0.429368 0.427671 0.426819 0.426427 0.426236 0.426163 0.426164 0.426146 0.426107 0.426118 0.426156 0.426128 0.426042 0.425911 0.425628 0.425153 0.424498 0.423498 0.421637 0.417553 0.408106 0.38434 0.338579 0.294559 0.274955 0.26825 0.265753 0.264898 0.264791 0.265057 0.265403 0.265557 0.265483 0.265384 0.265443 0.26563 0.265729 0.265626 0.265496 0.265531 0.265863 0.267436 0.267579 0.224077 0.14511 0.127083 0.125146 0.125006 0.124999 0.125 0.125 0.125 0.125 0.125 0.125 0.125 0.125 0.125 0.125 0.125 0.125 0.125 0.125 
